# vtk DataFile Version 2.0
VTK from Matlab
ASCII
DATASET POLYDATA
POINTS 3 float
0.000000000000000 0.000000000000000 0.000000000000000
-1.590633519926082 1.775245154003342 -0.131336024210550
-1.523219874851927 -1.731399659658132 0.554406694688792

LINES 2 6
2 0 1
2 0 2

CELL_DATA 2
SCALARS cell_scalars float 1
LOOKUP_TABLE my_table
0.0
1.0

LOOKUP_TABLE my_table 2
0.0 1.0 0.0 1.0
1.0 1.0 0.0 1.0