# vtk DataFile Version 2.0
VTK from Matlab
ASCII
DATASET POLYDATA
POINTS 3 float
0.000000000000000 0.000000000000000 0.000000000000000
-2.888310622236915 -1.042470986552896 0.339559736383658
1.209878129397822 -2.801463497436857 -0.440359626190480

LINES 2 6
2 0 1
2 0 2

CELL_DATA 2
SCALARS cell_scalars float 1
LOOKUP_TABLE my_table
0.0
1.0

LOOKUP_TABLE my_table 2
0.0 1.0 0.0 1.0
1.0 1.0 0.0 1.0