# vtk DataFile Version 2.0
VTK from Matlab
ASCII
DATASET POLYDATA
POINTS 3 float
0.000000000000000 0.000000000000000 0.000000000000000
1.905245043277716 2.139632830090502 -0.420729863293057
-2.151279784395674 1.731399659658133 0.783001807098639

LINES 2 6
2 0 1
2 0 2

CELL_DATA 2
SCALARS cell_scalars float 1
LOOKUP_TABLE my_table
0.0
1.0

LOOKUP_TABLE my_table 2
0.0 1.0 0.0 1.0
1.0 1.0 0.0 1.0