# vtk DataFile Version 2.0
VTK from Matlab
ASCII
DATASET POLYDATA
POINTS 3 float
0.000000000000000 0.000000000000000 0.000000000000000
1.103870076060643 2.396892512670755 -0.400567859399012
-2.324912026620397 0.910250668594758 0.846198774977338

LINES 2 6
2 0 1
2 0 2

CELL_DATA 2
SCALARS cell_scalars float 1
LOOKUP_TABLE my_table
0.0
1.0

LOOKUP_TABLE my_table 2
0.0 1.0 0.0 1.0
1.0 1.0 0.0 1.0