# vtk DataFile Version 2.0
VTK from Matlab
ASCII
DATASET POLYDATA
POINTS 3 float
0.000000000000000 0.000000000000000 0.000000000000000
2.973771925689876 0.309966671217065 -0.246173103147635
-0.534259669746898 2.945633040137273 0.194454617156762

LINES 2 6
2 0 1
2 0 2

CELL_DATA 2
SCALARS cell_scalars float 1
LOOKUP_TABLE my_table
0.0
1.0

LOOKUP_TABLE my_table 2
0.0 1.0 0.0 1.0
1.0 1.0 0.0 1.0